{
  "results": [
    {
      "name": "phase2_Ca_Si_O_structure_005",
      "formula": "Ca2OSi",
      "n_atoms_original": 4,
      "n_atoms_hydrated": 19,
      "n_water": 5,
      "state": "hydrated",
      "bulk_modulus_K": 137.77213522110156,
      "shear_modulus_G": 82.66328113266094,
      "youngs_modulus_E": 206.65820283165235,
      "poissons_ratio": 0.25
    },
    {
      "name": "phase2_Ca_Si_Mg_O_structure_000",
      "formula": "CaMgOSi",
      "n_atoms_original": 4,
      "n_atoms_hydrated": 19,
      "n_water": 5,
      "state": "hydrated",
      "bulk_modulus_K": 129.46865801023011,
      "shear_modulus_G": 77.68119480613807,
      "youngs_modulus_E": 194.2029870153452,
      "poissons_ratio": 0.25
    },
    {
      "name": "phase2_Ca_Si_Mg_O_structure_007",
      "formula": "CaMgOSi",
      "n_atoms_original": 4,
      "n_atoms_hydrated": 19,
      "n_water": 5,
      "state": "hydrated",
      "bulk_modulus_K": 127.06085426174224,
      "shear_modulus_G": 76.23651255704534,
      "youngs_modulus_E": 190.59128139261338,
      "poissons_ratio": 0.25
    },
    {
      "name": "phase1_Ca_Si_Al_O_structure_007",
      "formula": "AlCa2OSi",
      "n_atoms_original": 5,
      "n_atoms_hydrated": 20,
      "n_water": 5,
      "state": "hydrated",
      "bulk_modulus_K": 59.061012871664076,
      "shear_modulus_G": 35.436607722998446,
      "youngs_modulus_E": 88.59151930749611,
      "poissons_ratio": 0.25
    },
    {
      "name": "phase2_Ca_Si_Mg_O_structure_003",
      "formula": "Ca2MgOSi",
      "n_atoms_original": 5,
      "n_atoms_hydrated": 20,
      "n_water": 5,
      "state": "hydrated",
      "bulk_modulus_K": 60.796922344499194,
      "shear_modulus_G": 36.47815340669952,
      "youngs_modulus_E": 91.1953835167488,
      "poissons_ratio": 0.25
    },
    {
      "name": "phase1_Ca_Si_Al_O_structure_001",
      "formula": "AlCaOSi3",
      "n_atoms_original": 6,
      "n_atoms_hydrated": 21,
      "n_water": 5,
      "state": "hydrated",
      "bulk_modulus_K": 86.50699968550389,
      "shear_modulus_G": 51.90419981130233,
      "youngs_modulus_E": 129.76049952825582,
      "poissons_ratio": 0.25
    },
    {
      "name": "phase1_Ca_Si_Al_O_structure_006",
      "formula": "Al2CaO2Si",
      "n_atoms_original": 6,
      "n_atoms_hydrated": 21,
      "n_water": 5,
      "state": "hydrated",
      "bulk_modulus_K": 129.20917800827564,
      "shear_modulus_G": 77.52550680496537,
      "youngs_modulus_E": 193.81376701241345,
      "poissons_ratio": 0.25
    },
    {
      "name": "phase1_Ca_Si_Al_Fe_O_structure_007",
      "formula": "Al2CaFe2O",
      "n_atoms_original": 6,
      "n_atoms_hydrated": 21,
      "n_water": 5,
      "state": "hydrated",
      "bulk_modulus_K": 81.06911576993724,
      "shear_modulus_G": 48.641469461962345,
      "youngs_modulus_E": 121.60367365490588,
      "poissons_ratio": 0.25
    },
    {
      "name": "phase1_Ca_Si_Al_O_structure_004",
      "formula": "AlCa2O4Si",
      "n_atoms_original": 8,
      "n_atoms_hydrated": 23,
      "n_water": 5,
      "state": "hydrated",
      "bulk_modulus_K": 65.65337947491061,
      "shear_modulus_G": 39.39202768494637,
      "youngs_modulus_E": 98.48006921236592,
      "poissons_ratio": 0.25
    },
    {
      "name": "phase1_Ca_Si_Al_O_structure_005",
      "formula": "AlCa2O4Si",
      "n_atoms_original": 8,
      "n_atoms_hydrated": 23,
      "n_water": 5,
      "state": "hydrated",
      "bulk_modulus_K": 141.0259018282996,
      "shear_modulus_G": 84.61554109697975,
      "youngs_modulus_E": 211.53885274244936,
      "poissons_ratio": 0.25
    }
  ],
  "settings": {
    "n_water": 5,
    "md_steps": 500
  }
}